<?xml version="1.0" encoding="UTF-8"?>
<VTKFile type="UnstructuredGrid" version="0.1" byte_order="LittleEndian">
<UnstructuredGrid>
<Piece NumberOfPoints="16641" NumberOfCells="32768">
<PointData>
<DataArray type="Float64" Name="Data" Format="ascii">
0.9999607350139353
0.9998171519323543
0.9999400339963352
0.999374628348803
0.9997651509884481
0.9975975310152307
0.998210640575015
0.9935003689062192
0.998988071283557
0.9904627696017116
0.9767895509520543
0.9820812940774855
0.9409596903526486
0.9952521551007764
0.9615042039981951
0.9217193646694137
0.8342473089761185
0.8625236871211424
0.7039950935499735
0.9761395878009844
0.8579324814895516
0.7800963088778653
0.6729545176145877
0.6437549266972344
0.6368845314399127
0.7477983053144992
0.8855358863113725
0.6612058653913705
0.6375266898405563
0.6694794076213026
0.7824178128095541
0.8945176023745468
0.8684438157747942
0.9564531262452022
0.6489746997834692
0.7227955273887664
0.767352825026847
0.8426838148898862
0.9183530221865801
0.9656992367773548
0.9871972927743836
0.9825841424001338
0.9953234741410268
0.6170653926882878
0.8917143014401577
0.9317019089944365
0.9547541300676698
0.9767587862741379
0.9902997352499225
0.9964330886699331
0.9987472596758393
0.9981205095719952
0.9995434562959185
0.5827669201586099
0.7969439698788927
0.9749187049379027
0.9897422454624789
0.9944537841045676
0.9975139393889408
0.9990476305686182
0.9996647520433106
0.9998831252169866
0.999736534937894
0.9999514281062688
0.6256834292796812
0.6464054401456234
0.8737466168789021
0.9896800206873204
0.9983814895713945
0.9993940798977026
0.999757058935438
0.9999114091761457
0.9999693231470066
0.9999888626533922
0.9999085111346908
0.9999907719486825
0.9270855691739524
0.9310029982877532
0.6380792629417991
0.9031227188115786
0.9930281148484303
0.9994915381475967
0.999921907408338
0.9999762959049356
0.9999918739470102
0.9999971859356749
0.999998647048856
0.9999371931338223
0.9999953087720389
0.9926282168825777
0.9937878420527426
0.9127444709539361
0.6369036662297223
0.9216489691456419
0.9946632133963296
0.9996934044464787
0.9999794654013908
0.9999971919217094
0.999999234315665
0.9999997202559856
0.9999996054416364
0.9999489621018719
0.9999963746613793
0.9993588453804125
0.9995103370684475
0.992195201619748
0.890733098158927
0.6449009215163505
0.9369152944433407
0.9959719856762055
0.9997884076048908
0.9999894118227192
0.9999993590394396
0.9999999131216089
0.9999999548393967
0.9999997387692517
0.9999570965752056
0.9999969598079536
0.9999467745488072
0.9999623333294907
0.9994128203285632
0.9898649559322755
0.86697773970211
0.6621449748662469
0.9510942095619872
0.9971294805407321
0.9998604302742136
0.9999937512625711
0.9999997244804826
0.999999981710652
0.9999999792438105
0.999999783083042
0.9999630089248138
0.9999972673215358
0.9999956748535522
0.999997112160965
0.9999572797900981
0.999239453672632
0.9870485946940737
0.8384530049220172
0.6917528807587778
0.9644393984322436
0.9981073313244352
0.9999151554202279
0.9999965023917492
0.999999857277963
0.9999999888274865
0.9999999815628745
0.9999997869805618
0.999959757643475
0.9999961538569145
0.9999996531385218
0.999999778397679
0.9999969082190454
0.9999453346267946
0.9990193912004721
0.9832496613135344
0.8007433861642034
0.737069770964428
0.9761993649255362
0.9988582824171863
0.9999529722406125
0.9999981562989217
0.9999998939062241
0.9999999728667582
0.9999999688501706
0.9999995728597194
0.9998854492749146
0.9999842073096027
0.999999972454339
0.9999999829718675
0.9999997758385532
0.9999961093930829
0.9999294234202597
0.9987139513435696
0.9773884609720829
0.7508176576072804
0.7962706622927682
0.9855066933225588
0.9993752816395678
0.9999759482394551
0.9999987776029857
0.9999997485363459
0.9999998737586455
0.9999998789262566
0.9999977519471102
0.9992668523143151
0.9998916295374031
0.999999997826413
0.9999999986806778
0.9999999836557607
0.9999997233945149
0.9999949822476483
0.9999069299045944
0.9982284154931315
0.9675130857473169
0.6927611337733947
0.859817153748847
0.992053580765885
0.9996889484735522
0.9999856570669365
0.9999975320107053
0.9999988337567984
0.9999993460866321
0.9999993186420345
0.9999843814992654
0.9947837451921472
0.9992314255767415
0.9999999997960833
0.9999999998586829
0.9999999986942174
0.9999999799088681
0.99999964269098
0.9999933526639793
0.9998706289518713
0.9973733854268481
0.9500025262426653
0.6454531165156991
0.9158305843235468
0.9960985564258543
0.9998305318042809
0.9999754679119051
0.9999890316120373
0.9999939978388759
0.9999965604591547
0.9999958211519578
0.9998912505097222
0.9667339941515295
0.9948886140220045
0.9999999996380851
0.999999999779384
0.9999999995447677
0.9999999972434988
0.99999996967987
0.9999995070071668
0.9999906093552929
0.9998048648045895
0.9957322171605708
0.9173255363158124
0.6456238539964824
0.9565172209524953
0.9980205859280757
0.9997542280712522
0.9998965075565217
0.9999443634110615
0.9999686747933181
0.99998190351882
0.9999732249931135
0.9992693862509892
0.8430348886004381
0.9698981749730092
0.9999999963422623
0.9999999983519954
0.9999999987706388
0.9999999955994918
0.9999999821072288
0.9999999049858073
0.9999990758777753
0.9999845194939238
0.9996667450134763
0.9921624474543559
0.8534180603947618
0.7235614333896192
0.9783996476396415
0.9975541467898539
0.9990280399396584
0.9994870974072255
0.999712827304245
0.999837033992125
0.9999048686574582
0.9998146528437917
0.9952601721511855
0.6439571771557964
0.8628644971069364
0.9999999616601285
0.9999999835665204
0.9999999951360432
0.9999999865129181
0.9999999487254658
0.9999998061495281
0.9999992119505613
0.9999957419276335
0.9999582339845344
0.9992523313042591
0.9824660306350783
0.7379464766529173
0.8281665868757566
0.9769930562432536
0.9911656606395357
0.9953835507235647
0.9974225043733345
0.9985259595715417
0.9991664260264507
0.9994912926521549
0.9985223168730766
0.9700926195859274
0.7536459667319005
0.6479271051210056
0.9999996013711214
0.9999998190123779
0.9999999698668804
0.9999999573136341
0.9999998400077428
0.9999993913178193
0.9999977195932201
0.9999909667641411
0.9999576412645679
0.9997197657947978
0.9968255834499493
0.9447007598811634
0.6023879843937103
0.8344622875131809
0.9304054880130513
0.962160849360618
0.9783883097422743
0.9873679653074564
0.9926619563477587
0.9958802350889945
0.9970632540645712
0.9861810032518433
0.8314138148941552
0.8982726408941478
0.6095850275322559
0.9999959000482955
0.9999979387022973
0.9999997062717424
0.9999998432269566
0.9999995133406737
0.9999980842650926
0.9999927798059935
0.9999729242754676
0.9998912380175895
0.9994872766440256
0.9968764844116179
0.9738036955214774
0.7661080235383786
0.5619068976137488
0.6936094508367676
0.7871795750848884
0.8599267402997716
0.9100981037874301
0.9436378134015332
0.9662764650969969
0.9808036392756951
0.9799510828850408
0.876512811075035
0.5731937257751459
0.892274995486379
0.6206168342737721
0.999958348935689
0.9999761845316513
0.9999965083393509
0.99999909458463
0.9999985303460608
0.9999941537994919
0.9999771470212755
0.9999148030996146
0.9996797012415267
0.9986931402046018
0.9937629288089533
0.9640293951871735
0.7949636819865673
0.6270146879350511
0.7171205567019545
0.6586512126474456
0.6376420755099201
0.6716781043870979
0.7350554504389114
0.8060083697511494
0.8723263881273016
0.919201588135649
0.8552917732262735
0.6271537250653296
0.7798687872065747
0.792419518133662
0.6754547244529159
0.9995836824132146
0.9997231845215838
0.9999564016760148
0.9999912775875673
0.9999949396418958
0.9999829056211484
0.9999296046707544
0.9997303315865317
0.999009165486393
0.9962959688444659
0.9850469812184066
0.933655454567493
0.7414646358429356
0.6857745381914647
0.9015212990345474
0.9008793980236275
0.8389240402242447
0.7637320412776846
0.6935723022485693
0.6464166290740013
0.6406358262947089
0.6882658662215734
0.7259993545246127
0.6212353677454704
0.8914155074651862
0.9272466499676304
0.6692608329883984
0.8059870815773574
0.9959631302164453
0.9968179042478942
0.9994551348065986
0.9998952583809543
0.9999721902866986
0.9999511673364687
0.9997931324868419
0.999166151245457
0.9969070970808531
0.9890291299562011
0.9612119587049399
0.8667363950331176
0.666523843484313
0.7420497998649301
0.9461770606263435
0.9829004156523584
0.9745566338422124
0.9545636721848572
0.9244766312136499
0.8820459532229996
0.823383431240826
0.7449517125447391
0.646009061800922
0.5494062911123793
0.8922917264087964
0.9847225043220514
0.9739385478830571
0.6457299271831475
0.9088569558036236
0.9641300888881934
0.9662146362876917
0.9934232584623787
0.9986949007433135
0.9997353276255894
0.9998428444766571
0.9994270279103488
0.9975420816031977
0.9906160290847353
0.9677982715486922
0.9009751284888298
0.7481897695847707
0.6393464653917746
0.8221180934789242
0.9646455328228942
0.994628616936775
0.9967877527795409
0.9943575622840792
0.9897922687280203
0.9824078499900007
0.9703379756077763
0.9491920734824821
0.9041859559791344
0.7126210329292223
0.766808257165584
0.9846731385452298
0.9969052038098678
0.9904128642607277
0.7485009478097575
0.9619402034108039
0.7754579268084357
0.7642350105250866
0.9319665396828496
0.984558917853171
0.9968839079640612
0.9991776370348665
0.9984731388628537
0.9932575652965536
0.973275492952082
0.9129824080313452
0.7796928823575072
0.6429116878265442
0.719440401831535
0.900386981299372
0.979578283643019
0.9970151927886947
0.9994031889357746
0.9993631238373469
0.9988368311957724
0.9979180840583948
0.9963704646830821
0.9935841931864727
0.9873564196910235
0.9491696245483043
0.6408298151460164
0.929004960570196
0.997373319744032
0.9990906198279668
0.9964609992342648
0.8693216569003218
0.9851844626368836
0.5420722382211068
0.6549930676784668
0.6676301487171261
0.8608583015094722
0.9649690829520294
0.9924737143942247
0.9954715476226115
0.9829799239896757
0.9320117740731793
0.8020877764509489
0.6521680890005161
0.6855108063991667
0.8487209339013327
0.9538052754498495
0.9899693930211193
0.9983300995021307
0.9997579587191139
0.9999148964410832
0.9998732846152567
0.9997698188337485
0.9995922824539706
0.9992775391172072
0.9985972750199936
0.9943065843038427
0.8987299534020325
0.6958239409086587
0.9816204765107496
0.9994557321612884
0.9996914876662517
0.9987039730263615
0.9431037644163156
0.9944608062113671
0.6158093263318755
0.874032602234027
0.805785046278919
0.6412188537063039
0.7538271759187408
0.9255616985595098
0.9782054800358497
0.9600661763934882
0.8522508476335315
0.6720487404035146
0.669470752728166
0.8267494850347095
0.9370084231986533
0.9817674929248914
0.9957168827253329
0.9991834579263623
0.9998717796706963
0.9999781245507977
0.9999853709279415
0.999975136994961
0.9999554771563637
0.9999210767902432
0.9998500154109007
0.9994177432095069
0.987048198450142
0.7441031433223343
0.871062327567138
0.9957576133180246
0.9998794518900419
0.9998910689016475
0.9995305975597096
0.9777945839653368
0.9979964656481994
0.6692430778446928
0.9375150419879448
0.9696110966273471
0.9039685593808432
0.7203244055745796
0.6575322312969574
0.8504655317668354
0.9011616926034679
0.7402088870336392
0.6437492736823546
0.8013239630554603
0.9278675240646002
0.977377145681273
0.9935749930724244
0.9983772951388284
0.9996499013348622
0.999936793205368
0.9999900738904042
0.9999975373609302
0.9999972717935204
0.999995193955464
0.999991457231503
0.9999840395701903
0.9999410211605004
0.9986153925780684
0.9507445388427298
0.6391561292866004
0.9644018681987155
0.999113206761987
0.9999725765478881
0.9999612192872829
0.9998327102548634
0.9919841794605929
0.9993013946514714
0.7185759903735881
0.9591798827436098
0.9930363811844216
0.9897302635495617
0.9555111419234656
0.8305556644741128
0.6409411199891558
0.7030165286513318
0.641313620598371
0.7314136398738452
0.9066583654908
0.9731466053957735
0.9924308219628563
0.9978827304673994
0.9994386608351701
0.9998659493427046
0.999972380174964
0.9999951635478611
0.9999991801773457
0.9999996458990418
0.9999994798159549
0.9999990783004445
0.999998294410226
0.9999939367635783
0.9998551732530316
0.9939102984248549
0.8307622532463107
0.7981831311833826
0.992264591856364
0.9998305374745362
0.9999934568804085
0.999986268641702
0.9999418430627925
0.997270752142446
0.9997653937885854
0.7720321077049418
0.9720710349875418
0.9965270313395923
0.9988193402183961
0.9959248854302645
0.980102574745468
0.9093004643980891
0.6885477954392777
0.5596796289436341
0.826558457435081
0.9585529584923821
0.9901807238426776
0.9974929358243945
0.999324274673745
0.9998169277531225
0.9999530612386476
0.9999891973576279
0.9999978487743991
0.999999626952005
0.999999921621418
0.9999999398529418
0.9999998997595073
0.9999998122944939
0.9999993360638308
0.9999843481357629
0.9993036439296445
0.9713902340120337
0.6481116958547126
0.9429245549172148
0.9985511478142771
0.9999700802188035
0.9999982990604944
0.9999952194641902
0.9999803953588978
0.99912252647859
0.9999245237755315
0.8201536553304845
0.9804538628115417
0.997767989139269
0.9996909735518661
0.9996461098884841
0.998302780771253
0.9909532040429033
0.9449217935502807
0.6527505019774038
0.8240036440532833
0.9786289330812487
0.9961799902140953
0.9991442747823971
0.9997837465873035
0.9999420828970933
0.9999845575094918
0.9999961415789506
0.9999991392150389
0.9999998331372165
0.9999999701549627
0.9999999904360009
0.9999999874215336
0.999999969308005
0.9999998638852338
0.9999978924657287
0.9999171446681338
0.9962311634254425
0.8773581215008455
0.7447537873350153
0.988657419379377
0.9997555464085447
0.999995002362476
0.9999995100387007
0.999998377572546
0.9999936323261674
0.9997325529624107
0.9999767829996065
0.8573244857542565
0.9857444961740677
0.9984785023149508
0.9998322140184155
0.9999565770396504
0.9998631675039219
0.9992474714570025
0.9944086690201566
0.916090226570187
0.6502965271073426
0.9689716037956617
0.997922901784317
0.9996785824023371
0.9999282825571145
0.9999816983957934
0.9999950990805945
0.9999987113018934
0.9999996857374869
0.9999999318162148
0.9999999869260029
0.9999999970318786
0.9999999957812464
0.9999999761940543
0.9999998452542381
0.9999989131275709
0.9999853695323915
0.9994912794786432
0.9786610799321039
0.6702837777745699
0.9276485381079973
0.9981186886016665
0.9999611043594792
0.9999991330261631
0.9999998460347561
0.9999994671118476
0.9999980138012049
0.9999208570381652
0.9999930268666136
0.8832848726715026
0.9888602494603237
0.9989078679037893
0.9998887428558957
0.9999862791654469
0.9999881656612494
0.9999393998040859
0.9994775684390801
0.9884617450022628
0.7593818777970768
0.8605860318240329
0.9949646341416684
0.9997831006777902
0.9999728821944337
0.9999940201254809
0.9999984577220067
0.9999995874791574
0.9999998930343608
0.9999999743305907
0.9999999942451894
0.9999999981456632
0.9999999950108649
0.9999999611199516
0.9999997059824094
0.9999980219670884
0.9999872930898828
0.9998754216258686
0.9965582992797737
0.8899769930937321
0.7267409272064421
0.9869745397235525
0.9997061561596898
0.9999931257425264
0.9999997908406848
0.9999999487320416
0.9999998312774308
0.9999993932000176
0.9999706409754437
0.9999973973860203
0.8951719471743887
0.9888397459699858
0.9991228714414971
0.9999200675540918
0.9999918733725285
0.9999983365195301
0.9999950531445
0.9999509792421796
0.9986476526400448
0.9505036961096814
0.6398989146186482
0.9659976733753882
0.9991208797808729
0.9999728153694077
0.999997593209958
0.9999994981411994
0.9999998697917977
0.9999999647257283
0.9999999898585686
0.9999999958055295
0.9999999963418568
0.9999999910621364
0.9999999368489229
0.999999470766857
0.9999960419653586
0.9999740562381729
0.9998442315301138
0.9987992224877041
0.9757499151025352
0.6663740174500309
0.9263517662029315
0.9978819487857948
0.9999416392627681
0.9999979486647036
0.9999999125298398
0.9999999823576953
0.9999999475261475
0.9999997717470279
0.9999665760515324
0.9999971495859126
0.8509687529072025
0.9701232020199686
0.9987562841915041
0.999927440384184
0.9999940652716476
0.9999993614897005
0.99999954610431
0.9999953101071064
0.9998500810691708
0.9935065723625959
0.8205651899833424
0.8092314254482331
0.992788412887393
0.9998341890921867
0.9999958019314374
0.9999997606645779
0.9999999560544285
0.9999999859504383
0.9999999903344565
0.9999999871301453
0.9999999817340193
0.9999999721640195
0.9999998959454108
0.9999991384809365
0.9999927561088688
0.9999469218278914
0.9996623590746102
0.9980922240655402
0.9879356516152513
0.8528633917994282
0.7332762312800445
0.9853288224659816
0.9994634479350499
0.999976616645429
0.9999989392985228
0.9999999538539579
0.9999999937840967
0.99999998009033
0.9999997589097396
0.9999118025846123
0.9999926895562207
0.6499074395837011
0.8360976535089928
0.9935301045041647
0.9998096717111546
0.9999925057201318
0.9999995198248758
0.9999999254236657
0.9999995405038958
0.9999838431420867
0.9992610291895933
0.9696734930931313
0.6454886756042943
0.9439391242758532
0.9984979222659216
0.9999667887336006
0.9999992339103531
0.9999999670045627
0.9999999833977491
0.9999999672154771
0.9999999350268888
0.9999998931939061
0.9999998524141863
0.9999997496746608
0.9999986812567799
0.9999881290501647
0.999901340240094
0.9992980728936427
0.9957408768305702
0.9781708988372502
0.8952130714381209
0.587217786006298
0.905349656049018
0.9945278962543593
0.9997105460447618
0.9999860350175384
0.9999994039008288
0.999999976969998
0.999999997507592
0.9999999797072342
0.9999993998223179
0.9997460111901586
0.9999792536508458
0.7746050887376053
0.6395322826753468
0.9471671594446744
0.9984698074824921
0.9999614210004163
0.9999988881117944
0.9999999501006812
0.999999951909929
0.999998290904451
0.9999204049715019
0.996376774296167
0.8835372563234972
0.7305078789239615
0.986589606469866
0.9996822728269733
0.9999930465907951
0.9999998313044745
0.9999999469517589
0.9999998618284448
0.9999996803582812
0.9999994011769663
0.9999990981754288
0.9999988304315125
0.9999975397480174
0.9999824289699608
0.9998365143525033
0.9986791306390536
0.9911348173727256
0.9525097124250278
0.8221272223834907
0.6097802191064451
0.6273890852645775
0.9436961790051905
0.9962858857405821
0.9998126882464733
0.9999920483750412
0.9999997042591587
0.9999999899593666
0.9999999980004926
0.9999999510110964
0.999998325523588
0.9993020720118003
0.9999435496832682
0.9625782258661184
0.8813911334163362
0.7260280672820216
0.9853187477042897
0.9996232868420941
0.9999909950614232
0.9999997754241656
0.9999999888368653
0.9999998215669348
0.9999916641429154
0.9996101817377038
0.9835354882651123
0.7043857296224625
0.9007479556227307
0.9969709583509418
0.9999313769574891
0.9999984572825525
0.9999997983158821
0.9999994540245511
0.9999985511880974
0.99999688676287
0.9999946659755002
0.9999927141057845
0.9999908556279403
0.9999729140676592
0.9997603585414466
0.997789279662199
0.9834013094669105
0.9079340177820008
0.7096016042140719
0.6528694689867611
0.7083824949763645
0.6779431573433521
0.9557857947102492
0.9975114089033439
0.999894221405207
0.9999961579897904
0.9999998753265231
0.9999999961480143
0.9999999959162201
0.9999998656388165
0.9999955044413714
0.998195229943821
0.9998549098382772
0.995913334437313
0.9846235331397379
0.7200519743969518
0.8853586463320261
0.9961333281683835
0.9999056102658097
0.9999977819254476
0.9999999469701023
0.9999999803286224
0.9999991421623461
0.9999597102682866
0.998174011661077
0.9343668073024459
0.6553077346422324
0.9731533617416204
0.9993227578992246
0.9999848108236911
0.9999991378726322
0.9999980301368738
0.9999940098690169
0.9999851647183402
0.9999707248143894
0.9999545937792955
0.9999440348528305
0.9999270874317185
0.9996700173454584
0.9967608491712874
0.9724611124595223
0.8451529821471058
0.6410673705032247
0.7641998914947975
0.9063993082495335
0.7975289493041628
0.7066721277805859
0.9695870137480989
0.9986186730518156
0.9999505752392224
0.9999984461581283
0.9999999553207619
0.9999999984748336
0.9999999892107299
0.9999996434153012
0.9999885434359697
0.9956501217617764
0.9996485348868168
0.9995985246724713
0.998436132878442
0.9457973690770779
0.6407572024254041
0.9638294077879996
0.999000949853458
0.999976179611485
0.9999994442796329
0.9999999851789684
0.9999999125003615
0.9999959163594376
0.9998115091525536
0.99189781400008
0.7983445483298682
0.8264992582939602
0.9935205193217267
0.9998482346267801
0.9999951250247407
0.9999935206499699
0.9999775475394839
0.9999357682111818
0.9998531922979047
0.9997369961183399
0.9996349180440985
0.999593513998099
0.9993740712590659
0.9957789068410341
0.960213538095077
0.7760145886404355
0.6530512234028982
0.8656196574887128
0.9656727522695577
0.971760497601923
0.7816671467145117
0.7639218442818758
0.9831501001724053
0.99937700212128
0.9999809169269231
0.9999994710089125
0.9999999862427358
0.9999999987952511
0.9999999715357419
0.9999990894004503
0.9999719061052557
0.9902172406310272
0.999177821464463
0.9999612574463421
0.9998508553612775
0.9939529266774652
0.8402304860685536
0.7769018233050191
0.9898906153967674
0.999744368662301
0.9999939914068104
0.9999998605829559
0.9999999879846252
0.9999995904177986
0.9999810542717448
0.9991455882315367
0.9668000750366645
0.6425780089127452
0.9454961302284396
0.998499424922599
0.9999620477507323
0.9999803247367277
0.9999240666306914
0.9997492995426192
0.9993354878995994
0.9986185295360988
0.9977868799699082
0.9972835909189259
0.9972164493791819
0.9939729729295166
0.9499681148725868
0.7203876276378456
0.7107728967247859
0.9253689703991317
0.9854353088750029
0.9954451697355852
0.9733207358696211
0.7194587240814094
0.8481826891066473
0.9925488251904055
0.9997709193412311
0.9999938626009561
0.9999998466389847
0.9999999962626176
0.9999999975908924
0.9999999250001329
0.9999976395206245
0.9999278342195348
0.9787561155572237
0.9978996546915513
0.9999958899149666
0.9999860451632061
0.9994112679790934
0.9777323355875783
0.677043789483127
0.9148847438396965
0.9973207309506187
0.9999352467878193
0.9999984966894555
0.9999999645776894
0.9999999580869635
0.999998113735979
0.9999139400135167
0.9962497278012706
0.8836851425811749
0.7271482249977863
0.9859570081906822
0.9996489157677535
0.9999415650763158
0.9997690069782504
0.9991238594613338
0.9973198979558415
0.9935638032418612
0.9881261965086549
0.9833401275526947
0.9820725516934262
0.9819968645529071
0.9402386949551338
0.6886143006873495
0.7686784592150894
0.9561507890960474
0.9930876364938391
0.9986764224710398
0.9976621944667472
0.9574150135088286
0.647524601232245
0.9258954774478038
0.9973673200158967
0.9999307485639813
0.9999983332286756
0.9999999615757104
0.9999999989377174
0.9999999932969139
0.9999997767802522
0.9999925048534027
0.9997475297438825
0.9489147189889516
0.9918978719928447
0.999999306227987
0.9999986856207183
0.999944819800436
0.9977155069433401
0.9255118049154221
0.6624989110132342
0.9741746909498445
0.9993120334084205
0.999983844556539
0.9999996298864158
0.9999999871200566
0.9999998078667239
0.9999914032221839
0.9996148598581747
0.9842349095251395
0.712269877241686
0.8941163239885824
0.9966392657472903
0.9997961548115631
0.9993671596800866
0.9972754872557207
0.9905019198311292
0.9742434403521857
0.9471379403184316
0.9180514638087903
0.90203636228321
0.906131310834749
0.8937427186323047
0.6710137806505139
0.8035504359593021
0.9713495740366235
0.9962925020195642
0.9994448718813592
0.9997465402178229
0.9962207015580582
0.9128839016374024
0.6655309431546995
0.9729711303097399
0.9992514495093324
0.9999825058632466
0.9999996110912744
0.9999999915327726
0.9999999991467386
0.9999999751933645
0.9999990494672072
0.9999622098355071
0.9984910352542966
0.8283503407714615
0.9494228060369112
0.9999997496562265
0.9999998651775469
0.9999948884754275
0.9997826310669558
0.9913420297733716
0.796902625500115
0.8224901156809135
0.992996450337576
0.9998282147288075
0.9999960585281009
0.9999999103091917
0.9999999730817859
0.9999990707614338
0.99996058913257
0.9982929426501775
0.9392462962755184
0.6487097203994079
0.9701740802790355
0.9989065832078333
0.9984181877417988
0.9924976597744946
0.9709280754723989
0.9160713108020201
0.8269062330191138
0.7420789585857979
0.6958822152197832
0.6875847883292754
0.7018434885482967
0.615851726312649
0.8010600127567572
0.9775158684741038
0.997688763624238
0.9997169661732568
0.9999461730864064
0.9996853691550913
0.9907060727288575
0.8023127763086932
0.8133477670725472
0.9925371892226478
0.9998249360627092
0.9999962275842523
0.9999999205816289
0.9999999982670104
0.9999999968247845
0.9999998650737166
0.9999939669099446
0.9997252288288093
0.9882698963683583
0.621302923147462
0.7493202537065363
0.999999872770682
0.9999999799219619
0.9999995272605563
0.9999797425799131
0.9991467342901397
0.9685576964571431
0.6474239084827017
0.9386640592659222
0.9982187161095267
0.9999584348126885
0.999999066828508
0.999999970984796
0.9999998216473903
0.9999949251633761
0.9998121043143827
0.9924878743648824
0.8102488898726815
0.8128122272218854
0.9914797700651459
0.9962018849012015
0.9816507920078972
0.925225768305577
0.7939999331534866
0.6623186862419856
0.6420487008219541
0.6834594802481765
0.7100718286481282
0.697621177227347
0.6047267780054421
0.6946269809706631
0.9715352590594606
0.9980415239795084
0.9998230212819607
0.9999778763225522
0.9999711657541092
0.9991230070241433
0.9697886250047624
0.6495794463625046
0.9390822227760393
0.9983695903895792
0.9999653589089094
0.9999992900699047
0.999999985543593
0.9999999992852618
0.9999999805832582
0.9999990765316681
0.9999552252460073
0.997866709658054
0.9211326237890616
0.8550118129230423
0.6767821275848462
0.9999999331697617
0.9999999939852721
0.9999999557667634
0.9999981206544811
0.999919250851003
0.9966565576685752
0.8971652639970489
0.7043620782151108
0.9828152568282021
0.9995696379400395
0.9999903186481852
0.9999997811890246
0.9999998932879662
0.9999982617903183
0.999964426046413
0.9990004784706449
0.9673547721534259
0.6418387341596863
0.9323653385222411
0.9890438181259145
0.9601407514988086
0.8416767785209254
0.6625109689249615
0.6713025387462319
0.7954022899233077
0.8766084940959307
0.9107150651656041
0.9157195822776437
0.8787415326853847
0.6261609687911703
0.8971669628594484
0.9952820860877603
0.9997828580351626
0.9999848660649283
0.9999960229636274
0.9999126065800393
0.9964624883281138
0.8889320676567718
0.7251427437991289
0.9865901052538435
0.9997044511450078
0.9999940370671815
0.9999998809766106
0.999999997564427
0.9999999972628597
0.9999998687434877
0.9999934938113089
0.9996774653192175
0.9852788882404556
0.7113997332272942
0.9770291336024628
0.8997590885729898
0.9999999623708701
0.9999999963289542
0.9999999954475267
0.9999998249947755
0.9999924199161621
0.9996738417422376
0.9870006234142396
0.7404536558492653
0.8724080715828405
0.9957233246534211
0.9999012024985536
0.9999978373244834
0.9999998657203493
0.9999986186454287
0.9999788082715947
0.9996604273987822
0.9934245983327636
0.8662588054687839
0.6835551300015912
0.9463567438214565
0.9205780578423607
0.733403960970406
0.6493515988712774
0.812970597484203
0.9246206340801304
0.9664611612424369
0.9808883334802041
0.9850090604810986
0.9814683806739883
0.909407019063162
0.6455150805027007
0.9641177115196258
0.9987478376520433
0.9999572244019367
0.9999977182236369
0.9999895828858961
0.9995589601416868
0.9817101466420903
0.6885741651616902
0.915343321992103
0.9977287250190016
0.9999537162059277
0.9999990848499961
0.9999999818912897
0.9999999992869983
0.9999999826757728
0.999999141814342
0.9999573077206869
0.9979332031799226
0.9226439814324888
0.6758214409980073
0.9965631921569233
0.978991986369223
0.9999999489925235
0.9999999877708915
0.9999999982112452
0.9999999824955095
0.9999992824206458
0.9999687182614976
0.998655580332482
0.9513807813960972
0.6382708109724057
0.9622371813557767
0.9990207652977537
0.9999784967696459
0.9999994612731637
0.9999987477074677
0.9999806526398497
0.9997156796589184
0.9960310876778827
0.9470923962739574
0.6125718004669634
0.72256194438648
0.8265026612247971
0.6512659433908458
0.7419313502345082
0.9147098070916628
0.9747158086963266
0.9912604887053776
0.9960415592399536
0.9974880614986478
0.9975025298196618
0.9897891909733754
0.8316285522158371
0.7636746409795849
0.9867990408388017
0.9995753853186565
0.9999857324760839
0.99999713420377
0.9999314564970341
0.9970506331755015
0.9010362101085648
0.7099255626361265
0.9851241256512565
0.9996756363784735
0.9999935338386586
0.999999872170884
0.9999999974201794
0.9999999978107691
0.9999998953188612
0.9999948675346683
0.999751271315004
0.9889115696770484
0.7535346064429427
0.8650947417189956
0.999368166723263
0.9952208145638757
0.9999997131535104
0.9999998785419286
0.9999999866339223
0.9999999935464521
0.9999999194579237
0.9999969416819746
0.9998662677494575
0.9943325027328005
0.8422409034297557
0.7815330216064712
0.9908884151645798
0.9997912773944817