<?xml version="1.0" encoding="UTF-8"?>
<VTKFile type="UnstructuredGrid" version="0.1" byte_order="LittleEndian">
<UnstructuredGrid>
<Piece NumberOfPoints="16641" NumberOfCells="32768">
<PointData>
<DataArray type="Float64" Name="Data" Format="ascii">
0.016590636146935248
0.02960828526351017
0.09478146675814314
0.08422050668483912
0.012023359519305072
0.07157499003474321
0.1689450596057379
0.21062190254766802
0.14370734164851384
0.053387818962432526
0.13312654469082397
0.09229132461154861
0.22318509480403997
0.0014643435874795471
0.00556677976066914
0.06581836686142604
0.008678006453606491
0.08376820868463238
0.024438049490163326
0.1447601354564329
0.029276632830589303
0.24636396135411348
0.06848241458725118
0.23015237472398856
2.9894885114688555E-4
0.017933924808506245
0.05058865250106648
0.021032274511673787
0.005749733950117198
0.26647233540813325
9.915308919537827E-5
0.17646811412490263
0.0915096348500913
0.07972083610186931
0.14581996879546372
0.1601181178995915
0.08037513941556482
0.01086444920630834
3.5638619939110057E-4
0.11829939808733692
0.14235248009650342
0.02900246944771686
0.052895459921305045
0.015310297133605051
0.06771972608035645
0.18337709801895466
0.2825329759318298
0.03749702931709508
0.14736637923818985
0.16113531548544568
0.07409678831381988
0.025481071879119178
0.042102599370022004
0.002368677067218445
0.11158757390640278
0.09377660414139333
0.19475527270768994
0.01201841660379896
0.2738780029038606
0.3056072352832298
0.010194960953234581
0.09726480732045094
0.020777785571659185
0.014660209402891623
0.007284753222285925
0.0657309468038949
0.0037975707834007324
0.060352854916629034
0.016505434170457266
0.18984576100185038
0.2696701354563698
2.0663982923651375E-5
0.12805977140823402
0.08463924111787574
0.03737692724770836
0.07599509577922206
0.17641386818492583
0.01899160361908561
0.2720571164106828
0.1039014867222797
0.2066907817457781
0.0408241685294643
0.07653708686822729
0.08907459382408012
0.0032129474358516827
0.24083466992754804
0.12531243957335492
0.0013127776943936188
0.13884094990021129
0.0015984868895737158
0.14733531637675368
0.10641644291297539
0.12259167769322128
0.3400868701091056
0.09201391780784335
0.004622034607739953
0.01729441159565822
0.08579393174590874
0.05500488147370993
0.1659896912567561
0.035584415284040355
0.18709845204106257
0.09040853847505444
0.04884060809774997
0.1748978222527879
0.036032499480859015
0.004958019284520772
0.028433321038790767
0.027706584031645606
0.018975496311261754
0.0015279773457363666
0.030547324252316384
0.11948623458575061
0.010200682842174
0.26919152944404023
0.0359811613803909
0.03934152664735587
0.10395449511394192
0.17173315062536865
0.08496307427644433
0.14940874242890398
6.435844947652534E-5
0.02410347158034288
0.27242445108522
0.3509616925211561
0.2763730246600079
0.04502590417780168
0.20307135903549095
0.14930219961538688
0.16470185195566117
0.2002774555980038
0.15046340598920432
4.5801686527074546E-4
3.5308609283955897E-4
0.0016063386288785203
0.005612693579958327
0.11648410138376984
0.154671166497262
0.2865264842366416
0.013571906975837471
0.00552437635307866
0.19348161387651752
0.04974097490032126
0.2973042859088956
0.027144008794842536
0.03435119336146307
0.09271523354348786
0.26742505555162993
0.056434619096023604
0.0012179181129070623
0.0015616139953756707
0.005473642109405261
0.27209343334128866
0.03549044322586285
0.2675825641213612
0.13531351302279182
0.08381789883235286
0.07956061166901382
2.2209616657092673E-4
0.2804332374267108
0.2008047715349107
0.08383619585837311
0.056813320219556415
0.01125806272557672
0.19458103213146838
9.147014074740172E-4
0.15900464250825905
0.06805718781056155
0.009545816759727542
0.005114856094575416
0.09737815117944665
0.05997778940126834
6.6485533622317E-4
0.0016033709108738393
2.531109323933064E-4
0.036734639312877446
0.03681754792290726
0.03119130012369196
0.18179276225992025
0.05537731240194603
0.022072163899745083
0.05421832971871117
0.1419208230123617
0.05696854579067436
0.07945376985673332
0.11817055173228802
0.06798539610830792
0.34385384491511944
0.0013115951689579922
0.047424816632399086
0.025936755281357943
0.12178506282714312
0.049538892277138244
0.09686766209520979
0.04790933552420677
0.13577377481286249
0.010047619680004732
0.006142311558041214
0.28085673810218903
0.12350123728370802
0.07426252981581843
0.2863631658642358
0.006628676089002299
0.022326139180643977
0.022128294006041164
0.3147574701506749
0.18863428667128157
0.15210989932048347
0.003602726245960772
0.018718457283142014
0.3161659376527761
0.04181348663581029
0.23724349684072094
0.22714879113369268
0.23461333399151146
0.3443461775445448
0.08799713592839749
0.02952414819936058
6.13121398642966E-5
0.22170065820476598
0.17445632257500743
0.08460344013711758
0.023246233093199398
0.17338457479603814
0.326297170394525
0.26070498969458633
0.28169826705224077
9.026527360690882E-4
0.009612939433357396
0.0768111641874034
0.04095936527173943
0.23352516508909063
0.048570080215644865
0.16069324362676193
0.030919155549633093
0.10847109545895998
0.2613251176817553
0.01890421933996258
0.33507547763716883
0.013913432342198558
0.29000045512761896
0.030787638163716765
0.09281322935908734
0.1612387203109502
0.3258625194311563
0.22256875306431467
0.15911733696586522
0.07314903348226207
0.13264357910624003
7.484220909031545E-4
0.0779053717309086
0.08314325856138045
0.3272102514041262
0.005532967383190053
9.001519129795198E-4
0.3113883837817524
0.2120400414945218
0.11547551381773122
0.0691497108320524
7.411523880871628E-5
0.001093061802206273
0.06332138810365529
0.12557363861433704
0.23079588596860034
0.20140902700336236
0.023783928436252967
0.1272192610136272
0.10445138716385473
0.24229441548711997
0.2228997394347022
0.2522885739160179
0.022979693355602203
3.7055454936546007E-7
0.0360883836233024
0.05746791872757093
0.2303494586976698
0.13401990693738058
0.036160246657550174
0.001966644897146573
0.1245394002831031
6.609256319182832E-4
0.18280497873581572
0.006505593710855066
0.01391830505129705
0.058295229971660985
0.11158511372500286
0.004559570783769631
0.15955741334794454
0.1977323467583624
0.08766101162092015
0.16018189075616984
0.06445026244596957
0.1046890636273245
0.08038501137782647
0.0014786717150795476
0.1663781424259304
0.14564245354938266
5.874699747185495E-5
6.420496969737545E-4
0.07513090462225447
0.20103669996705742
0.11511776937528434
0.22039219516085368
0.09625396196745088
0.014042335437444356
3.053866284751976E-4
0.28595530203840613
0.09469417409585272
0.04733097725482755
0.018709275206385816
0.19269410311268137
0.31677390085015167
0.2626008756585999
0.33089130524086635
0.008321699298480496
2.0627463532834958E-4
0.07947431718410422
0.31721559176441066
0.011465311915335183
0.016253149302055382
0.0011842731488522413
0.07666606987528879
0.005978578119984238
0.0033364173220376534
0.019939049203627508
0.29096106668731636
0.24360473888030712
0.2344642224943205
0.34667889987654243
0.24462555730190977
3.556881084033594E-5
0.027262434403262172
0.18787945935680153
0.12508872703119497
0.1781860616663141
0.24936871836840846
0.08582491236311626
0.23154586398155735
0.037821230955477736
0.1753777295723099
0.22924438098714747
0.1595070877963162
0.03279711497621279
0.03543757933496866
0.046985802692970396
0.051343145656374406
0.030166587321172018
0.03955709660594106
0.2567866408342929
9.764203642425239E-4
0.02971147455629114
0.15237261254485068
0.17528133518283326
0.11194003760599769
0.046594742702992464
0.26546430060330295
4.858079131639509E-6
0.025057310792297012
2.9619392230372425E-7
0.1190213916224537
0.09200281813714306
0.25833212868007027
0.009395430205491606
0.14346026022543001
0.05649940236173798
0.06336361137352685
0.04232285343345063
0.16269876905632666
0.0385363136973528
0.02319546593400606
0.18558779801515798
0.13064319766264126
0.08880576741078394
0.023553840120958333
0.00646802988061386
0.08169679312374627
0.21628403171666008
0.012525338238041799
2.9056983354460965E-4
0.007720204131812497
0.011358079491936932
0.049038755029347514
0.052448927696729326
0.00445823499345592
9.969075940549099E-4
0.0013972424715522423
0.07412678462560991
0.1153634849395231
3.897999193521307E-4
0.12318617473750128
0.32780902696066194
0.04829610890700853
0.04891822519480006
0.23703842574056308
0.2265701505914577
0.036361252454529855
0.15111909618409758
0.10499338171178621
0.30909915465307714
0.3357605015404193
0.11555442301016088
0.2907744677692512
0.002699796799056466
0.057097324428284635
0.0048643575347716295
0.00822932991773943
0.1848927279439888
0.24937592780720935
0.0589995102904176
0.16028085987866234
0.2663372004289148
0.1487142317686414
0.18256590450723528
0.07340280573917352
0.028841416746119966
0.2480878910910199
0.043761037614850354
0.1840647208959111
0.003130475528488585
0.10380103054104219
8.458838072219995E-5
0.2866819885099964
0.147216661003927
0.10987687421402377
0.05620823974094022
0.152182553261793
2.077633109301942E-4
0.059635323129732215
0.30855316579374137
0.00681215322257935
0.05343280739735386
0.039805255710121404
0.2605315692141874
0.06412229990644391
0.07924249757433142
0.021349289766771064
0.25168815434813563
0.022525763097104776
1.6807913890097933E-4
0.28001498666217756
0.0865262206720216
8.335111218504917E-5
0.08803093446739921
0.003565935229339569
0.22476812212437447
0.11686508775351702
0.2111937899182846
0.2408806312145287
0.0399317543969388
0.3165430847886784
0.23878731537090717
0.27978308976735683
0.011263850924128741
0.25366046786625496
0.062448876640164394
0.012502581423810229
0.1470194666067152
0.001218130689145869
0.06266729402495151
0.2207028215499412
0.2464911959042641
0.006163633093807181
0.00262850890419661
0.03431882351817459
0.005959775873121555
0.17064480506530771
0.06739642765529523
0.07487057801969989
0.21037606877197296
0.15506751184196726
0.016971118939843256
0.019831244029378487
0.044369322945786424
0.153498311989624
0.10402908442409606
0.09641715661275349
0.003542405768785798
0.09273453607246102
2.6387244503736943E-4
0.004145272693516293
0.0066791653909809975
0.034404760183326236
0.3464788509083157
0.041030917864033886
0.016744532822378182
0.15962110851548306
0.0696617665182003
0.17870969612352003
0.3100731025905802
0.021451403723604483
0.10079134856409938
8.809124049971996E-5
3.909885213075571E-4
0.10608682681109621
0.12800657123131465
0.19143927499077174
0.15160720208362244
0.113403093242204
0.1790248199139959
0.0012778349389781353
0.19956371832764577
0.10031123997841612
0.3021248971865911
0.05624524855141398
0.06165854528221378
0.24081516738673903
0.15201986217663357
0.2910633018399258
0.3346505265925277
0.26657231685145255
0.028177845132954203
0.24261746875108378
0.13681484984280354
0.02648609367818923
1.1301845479953101E-4
0.05955136822815051
0.0018376864919257107
0.24227624204479686
0.03687841239473673
0.002278494059345345
0.1176914833788234
0.044087323762235855
0.2297078559911521
0.023752385870796488
2.8909531279425313E-4
0.14207223202490557
0.050586238953415436
0.0589598650367353
0.16882072330335682
0.03148712001426761
1.4093274128664966E-4
0.23405857148648238
0.027014488449558723
0.10176374052217188
0.2119906358131663
0.26255154013573245
0.25305147763956704
0.3048320267641591
0.17333944392027384
0.09525442598438508
0.051832412645378134
0.07561490706018928
0.09820608241151901
0.057377179260651334
0.17292885111885864
0.01968573021678617
0.17299175904761477
0.05912070761157169
0.06552058833414488
0.11568428598821637
0.0013052308040509338
8.076837489643994E-4
0.26820836928806213
0.012478337170659938
0.014912915495184267
0.0023771393982340203
0.14277111016749572
0.10862550962269504
0.22178532173460758
0.0024696247532545925
0.009046920216721297
0.09798385761513945
0.3155527781472556
0.2172501843993636
0.11682813200826145
0.07718527506863829
0.038657501215010055
0.18603668597750223
0.13473445596062117
0.2858062484094688
0.16092108189722237
0.04209144829883881
0.28944806059694944
0.04353077780769843
0.06905318734941979
0.07217815811141096
0.03993853488212072
0.01406931087431413
7.244466717488574E-5
0.13086459049553337
0.046264572499386494
2.567891347197219E-4
0.0017552364637176078
0.1636358966929577
0.036827658285289666
0.2838642095170433
8.606280781729219E-4
7.532819261221179E-7
0.23514063324309806
0.0014985848502386244
0.007468535694099905
0.30715708737004943
0.11562508956452353
0.0515324886793775
0.17792545055528397
0.006604710220829396
0.0019791730088403077
0.010767898855456343
0.14757059562307864
0.3169285641798093
0.06659768341632177
6.561273619678868E-4
0.17137721946116408
0.010376591585712962
0.0013629839862270557
0.11491399227159102
0.25217963179273656
4.4916010072606517E-4
0.20483069183102742
0.018824353269714794
0.3055063251061998
0.32193947644703635
0.007823228494827632
0.012872361570679594
0.3128209263070689
0.129431864108465
0.04570057318818317
1.321712108479034E-4
0.09294682041895631
0.2112957883212821
0.254865559173723
0.1775959459334253
0.025597850890492737
0.2614825210523495
0.3471232326266057
0.09833402831359112
0.019403477694815714
0.30086716858519347
0.008245791738539333
0.06083460096416434
0.24000646720564783
0.010581374536401504
0.04699867513881804
0.02533739290856963
0.06252276919268147
0.16779769788456134
0.2361387057918082
0.0843233544695441
0.10240101441371166
0.0378250296460852
0.041893287514577944
0.057955291094439906
0.11781315549054837
0.07678183280765705
0.1290934708567245
0.3381730802012539
0.029101839509020316
0.1772088810507425
0.2278961024922051
0.05217939469251264
0.31866942330425957
0.2660132234787384
0.047915801926936834
0.0014718452418973629
0.1757468301184431
0.015249551768607315
0.08473487101943279
0.1534023680689951
0.18243611257735928
0.24778098560204853
0.2503871080424946
0.024022150998581605
0.11760012468501205
0.0849851307596633
0.04838449376921936
0.01140087694399993
6.492049704989174E-4
0.27577535171805717
0.01291274607598546
0.24605993700173812
0.0034123956767453715
0.056521806243550396
0.00619098397224405
0.05962323242809296
0.21836700220342115
0.024306853856084054
0.270993546078029
0.3279771756522849
0.24790093619391412
0.20356695493759713
0.001413487908852434
0.1495495714126141
0.11727540185734683
8.1554507749106E-4
0.3174575491076097
0.04775104976542061
0.005118136755716936
0.058913540857542426
0.29956699348574334
0.27668725074193934
0.016067008790073077
0.09911181319475848
0.21039457492936067
0.13990915766703604
0.029209783638018707
0.3495201262735458
0.3432721064709636
0.23385661560904605
0.3321425252385143
0.15089443061310875
0.08719621925165545
0.03945791075187338
0.017175985454531244
0.3399607745299001
2.4050143533177438E-4
0.0029256249571421753
0.09404449826013539
0.0692465395364516
0.08898603358353332
0.01835667206982871
0.041670249015370836
0.3405829856429391
0.15430261913260315
0.009955683764228597
0.30431362664105677
0.027670938784517242
2.4378760038371185E-4
0.11132181154300255
0.06261868317840566
0.2027258263212819
0.0039058648708719937
0.19450143408185244
2.9905727748150376E-5
0.0064166870944777936
1.5189519975957838E-4
0.05650696586557578
0.07584812971149825
0.0365465999295926
9.272718252983933E-4
0.018504983179295616
0.13028304619266215
0.19051152709830285
5.178867807926757E-4
2.5200983200808984E-4
0.10351661426209233
0.06221075204991239
0.05071799741595942
0.00846132674305126
0.007264953099586502
0.08245615395061112
0.08738481444287927
0.08258498117783528
0.20822019395431973
0.02372017124130455
0.0010784704502964262
0.022296190360282363
3.697692472644939E-4
0.033828443340331485
0.08584124307961664
0.016417731184487867
0.23049905237371865
3.210529574723793E-4
0.15165846740632927
0.2019779856337961
0.1933686033320299
0.3096381135483209
0.16719887667761832
6.232673377145868E-4
0.025324249304790235
0.00203327370800208
0.012142424903469767
0.08812635997916295
0.14259873016881452
0.06864839241320801
0.009265638888245163
0.28163630471738177
0.02232620869414732
0.040764615060622816
0.007744613368609002
0.17586040734435793
0.010332187271104711
0.005965786705613532
0.04223750667847151
0.0028808395278326453
0.1064512717598074
0.017429228144423728
0.015376027698580154
0.0031702863502865624
0.11702354656350775
0.15223301731183347
0.19280346109570318
0.04187423325173377
0.042183286098158135
0.01047668101451403
0.11932127456624211
0.185458611575721
0.07418705616274049
0.316119801949907
0.06879864592447373
8.507868989320006E-5
0.3201970062498512
0.28263406991616036
0.0032550756717937834
0.22695451848988513
0.33477041621580783
0.28376622250453587
0.016457584099037796
0.33354838517472535
1.1213768476516552E-4
0.018756450038844463
0.10581459467879957
0.2827677053543475
0.15819862543085617
0.346423335428561
0.001675105001226647
0.0024668611722830315
0.0361691599379242
0.18504872564721223
0.00890018620203099
0.13120254235768783
0.21462184019870573
6.153359307194551E-4
0.0994772457317181
0.20509539431740542
0.047638811408609774
0.0014071975911101342
0.010362186076624619
0.13733750490243163
0.035567264513073175
0.21213697202368256
0.1402949035269277
0.13985649508263415
0.005424241131447309
0.27037510132681597
2.823630096798098E-4
0.18665925752978133
0.19584925546115486
0.010690510485044425
0.05981812075478054
0.012221608777450571
0.062145660536322755
0.01559633304283956
0.13225718156146665
0.15878227949895007
0.1798788650213844
0.2456172531359242
0.03310539411302342
0.028346410307754547
0.06261217121487771
0.030696275861013363
0.13818885505694997
0.15170254422305687
0.10836957838652245
0.04894545989715739
0.020794511863263518
0.017029137993301184
0.3041024596761764
0.3341199875498859
0.092546329707409
0.022647205154530965
0.01967911260235244
0.05060170739277961
0.34160717178489564
0.027806914546520935
0.007467714679806149
0.18337287611559824
0.04402510021339309
0.085709216322853
0.08746912235568435
0.031237739589899192
0.1071479442797362
0.07186345362852162
0.19016301354144038
0.07961513201111473
0.10722510083259074
0.056200407826399915
0.009903048782059807
0.16297916997874345
0.10417530556845536
6.387350512169301E-4
0.07710945340711592
0.09075048298613259
0.09589693568474777
0.010404477925022085
0.004289686277217418
0.1122839433816479
0.0014712171853195756
0.17262580954058657
0.0012558184625814856
0.3125293779153086
0.006097998677060706
0.08870532904564737
6.515203259346231E-4
0.17431725127607225
0.11906293334465298
0.3011263631666014
0.06468544676472987
0.0036397386733818954
0.11327003040393231
0.2415558854831937
0.012772429800886402
0.031043430976534666
0.34194385570088714
0.2484372979306428
0.02259116806543967
0.31600113935107216
0.11145155755802423
0.09914821998050377
1.9589081630842168E-4
0.31004593932997715
0.17381412893544718
0.020912505285550068
0.0878561368217879
0.003947535569778689
0.01764172527874498
0.09988592248487407
0.16255327195358102
0.10614415918512893
0.33745624451427003
0.04146199160705853
0.1493668018133893
0.34233572256281436
0.12299242541286379
0.05765497223747688
1.3855667371808035E-6
0.04190737322141582
0.12135747484507312
0.04145408469094995
7.4917811661986755E-6
0.09514944872694492
0.18245217533167796
0.2300187975976819
0.0042867533976227385
0.03926514258499125
0.09942321132160153
0.06766603264327659
0.0014374368962521194
0.13993374492847177
0.14525030631891384
0.0369711482698387
0.1305975121364653
4.7088226062681446E-5
0.22648408304421988
0.25254875418577927
0.26287103203006806
0.008900999325222198
0.08242905217004612
0.11393469997600754
0.07205697102538104
0.183286623638759
0.16634855997982165
0.16848675786231693
0.00568114285501046
0.2910191551078863
0.0013226633983623548
0.30167781077323846
0.10801955553145436
0.09687044264755207
0.08283445263803968
0.010941242030511751
5.227913779219039E-4
0.07541899115081555
0.2481213165487704
0.012071448288435437
0.2796210754713547
0.04315162500971653
0.22222358118042737
0.02841782147166496
0.021481671733248858
0.280856343153566
0.010396320402040044
0.16917647604039998
0.34625941769709856
0.08002446328062983
0.033345494111230015
0.025000979452705054
0.1045394446643617
0.2115996332987476
0.13718293311576088
0.02579577106809734
0.004270038523419957
0.09963052738030283
0.11387520242306086
0.3185695267475446
0.17072428662483866
0.2994895065040642
0.16472732267192092
0.1416193064647915
0.23564519240352189
0.12058368419363022
0.28562193372083206
0.10945672491056417
0.03660895895636958
0.010815565868778153
0.2749895531542035
0.04074532271539742
0.15358998778341904
0.26895073278758724
0.01677002847084977
0.09176465328912063
0.05956844603452909
0.029119116130423
0.060762441164694786
0.03628888669032834
0.05964693060798121
0.2178846158173321
0.31844187410383284
0.08502412673638089
0.02767455867647889
0.010779392843356495
0.025072598964794232
0.2561259387940546
0.147332534990141
0.019421046709851342
0.019236901684844987
0.10514235411813978
0.10917548894559036
0.13712737268643788
1.340020204972204E-4
0.3388310868598694
0.2318763992303669
0.0025159403022599097
0.3138490382887028
0.08365316343804648
1.1515482226907801E-4
0.012845071366080735
0.009359291407242344
0.32334974685614537
0.12958623302931851
0.027471125883973425
2.9387097795229E-4
0.1256120253038408
0.024650202542677323
0.029618674513889005
0.3009028461342864
0.003597476780370691
0.02081376280613669
0.04137958922921475
0.15738989145038937
0.22888673825564584
0.08506725979477305
0.07296797324290125
0.024262194974363466
0.13742450154945013
0.08607279163666674
0.0018101800362521302
0.0033667695555781637
0.021162767320628963
0.014881877640735714
0.17393541473880622
0.10728611465972879
0.18125227637360622
0.1061051946981238
0.1686964899217761
0.05429583303540869
0.30608403831869846
0.1516993545259382
0.21097997702213306
0.09080956627622634
0.07593553077819551
0.09720969023495243
0.2158627339717941
0.1312893073036338
0.02217156784306417
0.17157275619429813
0.0668984765413554
0.23451232841505512
0.028745739108321268
0.15476943361269624
0.0023221659640798873
0.06704686097618096
0.339288467185902
0.0014362733718757388
0.0104627305763555
0.061578355900657133
0.05680270465593461
0.1628813047817395
0.02338298793160186
0.27303863742358314
0.04246897419657805
0.3376753344721154
0.023598743561337933
0.058448575398969506
0.16355550689409315
0.09611661560678583
0.05841532819281367
0.24389182884366487
0.008055926445314424
0.07900603501726784
2.0453470976773263E-4
0.17404181197133417
0.21947856137789612
0.022569441796062642
0.18371653906487312
0.09381430721795443
0.007029434458917454
0.0027950581969930057
0.05478236671640718
0.20289548861938694
3.568188059054393E-4
0.17286867796571742
0.0833949382647961
0.04212851482101474
0.04597891517671167
0.0350111629429231
0.14630645062454978
0.11909119799363407
0.007935292013372099
0.24101336924395642
0.0021169874500794627
0.1608333270049393
0.019008203384433393
2.9510502253284575E-4
9.770792517596624E-4
0.06650223918522524
0.3118758386946263
0.06509640838558653
0.013108782283404999
0.1464577123289969
0.0066263816164993505
0.008571071270995339
0.219114766594526
0.2747420983729222
0.0012596422104221036
0.24647649176484246
0.009251043027790637
0.108774780045577
0.32796397953708645
7.811025037317113E-4
0.15654994203253123
0.038435367887853476
5.92761854370032E-6
0.3509782594380784
0.21524591879656696
0.017630591643037395
0.19531865635654266
0.011845123820279043
0.15021014542143882
0.004860382022667825
0.06073514260636735
0.17468702043321285
0.055011170380042176
0.05223331313668118
0.2312750138588546
0.26435079873369965
0.00321429491622443
0.007540022525327638
0.007484139305489343
0.25820227422690406
0.32126218138493823
1.9684403411197476E-5
0.010278760180101376
0.061854597829880745
0.003773755060845098
0.22800426549067435
0.02577212058332446
0.21681658432120993
0.023174602277547886
0.22283462349628697
0.04679933761879727
0.23473100393889346
0.03475643393796154
0.03444753062447742
0.11867517009673142
0.0018271464773958529
0.12478829730576042
0.027392687768486405
0.07988866431901401
0.10152421517135599
0.1625507652017554
0.14750244527668632
0.09643302871757374
0.2008288877528745
0.0200294708879587
0.20331352518189488
0.014899736354227618
0.03217528464010911
0.04442030999078663
0.06072006770380103
0.018525270256620128
0.044158380252175944
0.03460768030817167
0.017404128280639794
0.040872930751431794
0.030365959554978766
0.0014134758975500507
0.2577080497549823
0.26642175494182546
3.420685693525254E-5
0.2442916976818018
0.04560636701850192
0.05491388902862081
0.13307157996941396
0.008291403218326238
0.04753934809051261
0.008749844476065596
0.11658650644565066
0.3134302921474483
0.0021271872136408836
0.24190199067334975
0.002270883258547665
0.20765944503777628
0.19548183565933983
0.08089156556754334
0.062367089406999414
0.24879826393667773
0.23258584979437819
5.443116248893603E-4
0.07874466435835531
0.1851655791484762
0.06779364079247319
0.03172123758677224
0.2030051053258037
0.3270391129054576
0.12084756145160659
0.09708027235818972
0.04008113091677488
0.1128505576165166
0.026547735835364406
0.06994139464480831
0.015882709576587963
0.043788429437259926
0.1900469696964206
0.24680793863345019
0.3357301042279852
0.08705060156706527
0.27981128146468065
0.1375225780545592
0.0019260619633685396
0.005503079412040183
0.0022863967367422475
0.1593636227506543
0.22813537631269545
0.00566622985024606
0.2968524521785659
0.015408881994965429
8.994804207743049E-4
0.042790603210667466
0.12413740796146934
1.0101090086596717E-4
0.22136095597162997
0.051999331482847376
0.22001574944824337
0.050282764595970406
0.23927366674704484
0.10831356399335844
0.06475403541846839
0.005700751613253451
0.2966106060235932
1.608676138748851E-4
0.08132121327274609
0.18614250927129294
0.021932948600087782
0.008999986692448586
0.2792885738651067
0.15095743347386484
0.04449156271856695
0.005410242074470767
0.009114248669766612
0.23175582602585504
0.10753003467497213
0.2055854103496588
7.137792490852062E-7
0.2911781176705585
0.29574482754535786
0.08994531345494466
0.010904741863224458
0.029572202127168178
0.18203950682550873
0.17956273087804708
0.12469748927123814
0.14017040589421598
0.1367698250665671
0.009037745013649411
0.3208231144116765
0.13072318123879134
5.154817989238545E-4
0.29768327563786834
0.2121587077479522
0.022653075624798784
0.11981992867069723
0.013457368579015649
0.0016044625174348264
0.0792871375014359
0.07612719047901799
0.002281774902776344
0.2690788453186312
0.12045641288252798
0.2603453213745579
0.013444237531756827
0.05608089214562676
0.02530695327240988
0.0032902883443464157
0.14833290989447645
0.09524674022884509
8.581031063501782E-4
0.0054130767941869325
0.0018804658439758352
0.283151592198496
0.007586193286221751
0.006787107380137261
0.24200769182156445
0.2378072283120098
0.19477535805969606
0.2872880830148229
0.21945157345432653
0.3121881236373387
0.02997379881301175
0.28097354889546583
0.30329468485342104
0.2546981082024323
0.09560020271598894
0.19485464685223303
0.07100491899109372
0.34062036754659375
0.21723478713495292
0.32108691130465283
8.133934256331222E-4
0.3389020931852307
0.01236473701009531
0.023292871609554094
0.29246105793634464
0.34497067368341816
0.10609067818231716
0.10824557120100867
0.011536623568395181
0.007382251178180164
0.19635363182519527
0.06962460263502898
0.003183374005866554
0.10328140266602251
0.2375655313167879
0.027812337309178876
0.22736174910341747
1.219080036151462E-4
0.2816446527894137
0.10766082392525028
0.12044927024796118
0.0775170973210351
9.287829617947212E-4
0.27097730509761553
0.3192116714737432
0.3314656423155243
0.009886255338755975
0.04694814311618827
0.002851418945751245
0.08244635225811668
0.008070415840741668
9.650079184389414E-4
0.0016781788831282144
0.3111025053445728
0.1348042956360096
0.21418266657128143
0.15923048875783047
0.02332448217535002
0.1716308299952931
0.15351946074138828
0.0025063872126893675
0.019316469319345275
0.008246134083733382
0.11509692100105179
0.02894406207839131
0.00935128926834538
0.33976705666901186
0.230029137069023
0.12029321725053295
0.099690759236233
0.3139214867555806
0.02762767430680791
0.08119089211870385
3.930821996941284E-5
0.011689713698254462
6.167447953548468E-5
0.012098344622873826
0.1407886064104191
0.3256285822472344
0.03696424188400752
0.33039071441960866
0.09812343278311321
0.1829231556161203
0.0546710094347852
0.004143593185147354
0.20027452111459693
8.202337312056949E-5
0.0024590621958717473
0.03957830149504965
0.07909013907950152
0.2964157293973915
0.10035854117069452
0.005425564982404303
0.2046493033629584
0.21713163414232267
0.013013781568644425
0.23383907047474436
0.17566749011503696
0.08568452207366191
0.04161001233698129
0.2551498255246586
0.03522460358780089
0.3511685256994166
0.11699638691515385
0.17171481794679663
0.04045778364058518
0.2919340604967545
0.05960297024846372
0.1409909681574309
0.0019368117827892166
0.0637569945551496
0.20261563577021535
0.04772588033044048
0.0024723027499016286
0.03357128744092158
0.07413993310916572
0.006519223711109971