<?xml version="1.0" encoding="UTF-8"?>
<VTKFile type="UnstructuredGrid" version="0.1" byte_order="LittleEndian">
<UnstructuredGrid>
<Piece NumberOfPoints="16641" NumberOfCells="32768">
<PointData>
<DataArray type="Float64" Name="Data" Format="ascii">
0.9990753146917305
0.9912218427308159
0.9991635116842602
0.9890868340965318
0.9991490790277648
0.9886578170558106
0.9057306128150646
0.8837850269653147
0.999241362030756
0.9898597842447249
0.8796317427973249
0.6379190554566225
0.6387374688933856
0.9993905373849565
0.9918614629701054
0.8903825202771208
0.6401457296526024
0.8819756062900354
0.90973304939496
0.99950884671629
0.9937256502200541
0.90925059248197
0.6373610819394124
0.9140331372683579
0.9881110331105765
0.9919026180767219
0.9993093964218484
0.9935787767602715
0.9289708389687367
0.6386141156472482
0.9043732157756003
0.992444470527484
0.9989076389065854
0.9993819952619349
0.9967522685076828
0.9803068128328687
0.9384375931554354
0.6521808092634376
0.8828212787233026
0.9913872417407634
0.9994406025993353
0.9998452251449159
0.9999498286825881
0.977032130692535
0.8930111856806928
0.8904908358076363
0.6686712462697029
0.8481317428092993
0.9888212819959901
0.9993564977654472
0.9999596338692924
0.9999560417866906
0.9999938895191052
0.863080076164788
0.663093368693654
0.6869759714545159
0.6180805717615498
0.7877807208105982
0.9836083045712639
0.9991313863146238
0.9999533461044807
0.9999969382988705
0.9999803015455775
0.9999982242419707
0.636526809942026
0.7619984544987601
0.7193677041839011
0.6373710791796503
0.6423300843080628
0.9668414437375846
0.9985023511257297
0.9999319353817336
0.999996552438038
0.9999996727165499
0.9999802849204406
0.9999983010692228
0.8109935468069878
0.9407439108732378
0.9302690404226289
0.8981080212439462
0.6597623734682995
0.8776166908055666
0.9951998458430088
0.9998423691162461
0.9999940071439684
0.9999997161516634
0.9999998423123211
0.9999507872582587
0.9999958338745604
0.855414112188284
0.8699422333404092
0.9694940795772454
0.9798211142484977
0.9165411981417995
0.6497327648594077
0.9720639886511844
0.9992409396008002
0.9999786380577109
0.9999992575072815
0.9999999553458867
0.9999996489971876
0.9998552708749592
0.9999880814190607
0.6232730538164666
0.6380384178794782
0.8162503096804367
0.9484055549486224
0.9675339585270571
0.7548340160336936
0.8535348398902693
0.9948232068234771
0.9998564898896247
0.9999950789920491
0.9999997785818061
0.9999999585080883
0.9999990114996774
0.9996119599377302
0.9999680797833719
0.899069206650867
0.9139759324879019
0.6715914805718064
0.7113821492644523
0.861228745061817
0.8496812446511496
0.631741384919889
0.9661561186195956
0.9987912615404679
0.9999498180495282
0.9999974245637436
0.9999998465810905
0.9999999035632717
0.9999971979690038
0.9990591442462639
0.9999138115607049
0.990619897038569
0.9923401718728941
0.9400839007509398
0.7608116516070271
0.6367999558483919
0.6740574133886605
0.5756007661136292
0.8217811220916633
0.9887600330314136
0.9994050118644543
0.9999658401550275
0.9999979081266651
0.999999856135343
0.999999684896863
0.9999901830401856
0.9975249916945556
0.9996698263759451
0.9992672494235837
0.9994237702631883
0.9948036846697186
0.9670522898245688
0.8760969665098214
0.7512354198877798
0.6814422174850103
0.5821111513880998
0.8980893882412727
0.992551763017692
0.999531592169542
0.9999704695869798
0.9999980931584237
0.9999998095959857
0.9999982815936147
0.99994260942364
0.9889788307693661
0.9977726066674922
0.9999441255233016
0.9999579468801698
0.9996075345952898
0.9971817094650736
0.9858910680525904
0.955174300722134
0.9149728736089777
0.8434929238948283
0.6300462132692051
0.9171334288189501
0.9936714180612222
0.9995836094504577
0.9999728495461333
0.9999981661364591
0.9999992483822017
0.9999851884201286
0.9995201066089281
0.9262647237903091
0.9817648313652463
0.9999957231989631
0.999996936021272
0.9999712563425688
0.9997822636847798
0.9987794054382996
0.9952706893009609
0.9881993568384524
0.9766078390732176
0.8797879294323305
0.641465131408951
0.9262262104902959
0.9942955213590234
0.9996154074845947
0.999974329531773
0.9999977872746029
0.999992561979789
0.9998474408944086
0.9957264913012581
0.6929965190619595
0.8800575313685614
0.9999996687630562
0.9999997727222211
0.9999979037606469
0.999983638646157
0.9999019287016074
0.999573837530513
0.9987327401197904
0.9971972083146808
0.9875297363449834
0.8730744811632521
0.6483011651392713
0.9323780698599234
0.9947117204159083
0.9996367832823652
0.9999746743910138
0.9999922791954929
0.9999099250572295
0.9983419434924411
0.9648802959446007
0.7288043829649566
0.6376962850654468
0.9999999674162019
0.9999999710374344
0.9999998198762898
0.9999987290610682
0.9999922507478635
0.9999637122371176
0.9998777098954399
0.9996951560320081
0.99888732627739
0.9877325928194353
0.8612856163257432
0.6548584334382227
0.936700252562997
0.9949996392268409
0.9996507641787286
0.9999663889601699
0.9999241749019808
0.9988709543063942
0.9819906622166409
0.7875034197287423
0.9174007233140218
0.6636631532646704
0.9999999441642571
0.9999999472318946
0.9999998667245701
0.9999996306274115
0.9999989078427298
0.9999963208576061
0.9999881225691553
0.9999683474858753
0.999898798225661
0.9990526903619948
0.9864218402636233
0.8506369936093486
0.6606933684437706
0.939765655854297
0.9952155656822654
0.9996378341611768
0.9998612721202926
0.9990956780582845
0.9861956304511272
0.8427201186153644
0.5567952009002969
0.9395840879936604
0.6772661955122369
0.999999561522732
0.9999997769428147
0.9999995196902416
0.9999987134551863
0.9999972696664424
0.9999954167501854
0.999993656356793
0.999991925663954
0.9999869585866995
0.9999265539924416
0.9989724374752286
0.9850782039335434
0.8420859987290875
0.6655427072837419
0.9421858341911866
0.995340279617877
0.9993318936662743
0.9986855985258609
0.9894365845446133
0.8661024014184789
0.6349438506778335
0.7378289985979404
0.8958729627057811
0.6363887466209384
0.9999963781298556
0.9999988506195363
0.9999983047306893
0.9999947293186432
0.9999869604807937
0.9999752155400167
0.9999642788235299
0.999961091223994
0.9999674410306348
0.9999745471358078
0.9999160667872719
0.998867113405927
0.9839442096136012
0.8354249303920627
0.6698896822294735
0.9444763996727913
0.9944487069238815
0.9958820109724758
0.9864610659750861
0.898071078881587
0.6370296408181643
0.9025978611626015
0.8713778894642137
0.8142695355017076
0.6707040273584611
0.9999700089145266
0.999992267745349
0.9999945013374134
0.9999806803043009
0.9999433147454492
0.9998722565334099
0.9997832882834042
0.9997263352894593
0.9997429095827486
0.9998178988890469
0.9998956031766546
0.9998756127828662
0.998765628977327
0.983022155045737
0.8295763411719159
0.6748586483519214
0.9441748717547064
0.9826325251249617
0.9629801168779151
0.8863494652935532
0.6124692772587499
0.8975870066212275
0.9794065585897062
0.9355012991910092
0.7144725798285474
0.7644790314562846
0.9997530263875277
0.9999359311061852
0.9999818607658577
0.9999373476441935
0.9997819654315958
0.9994133291437677
0.9988159409761014
0.9982367169427282
0.998074048485449
0.9984467171040667
0.9990557093084091
0.9995457549041901
0.9997348591970889
0.9986398142890733
0.9821202908335476
0.8216355751593748
0.6784367538965844
0.9106584050142518
0.887038332866741
0.7707388987728708
0.5904938143562272
0.7372738178680416
0.9716410085397885
0.9916402194341392
0.9681136030534283
0.6460071457628056
0.8557671289103833
0.9980001695493899
0.999412954026488
0.9999172816178429
0.9998183278891705
0.9992667447793241
0.9976428036226497
0.994330689085573
0.9900114036845766
0.9872003633468757
0.9880180536126182
0.9916901583922874
0.9956124464809566
0.9981357280175799
0.9992043717218237
0.9983026424356632
0.9801623708366349
0.7988233835269549
0.6434469036560128
0.7177858123769225
0.6408605894583306
0.660969142909296
0.6065288614653805
0.8089485503241204
0.9738076068863554
0.994615501177465
0.984251638327045
0.645309146525142
0.9167182475055539
0.984597334750825
0.9944678880080866
0.9993442644193673
0.9994796843692766
0.9978628417006481
0.9918661920632937
0.9770426596393808
0.9533699878202638
0.9315356348927996
0.9256414947920169
0.9392192819092542
0.9624134024842522
0.9820341664537809
0.9928475818679694
0.9970373183793111
0.9963484257200725
0.9674883057384753
0.6923956125307565
0.5860362030282992
0.7104771694273879
0.8367221768925492
0.8776863265924066
0.6694252291978153
0.7850829151397836
0.9666716433269289
0.995483469918705
0.9919417490894827
0.7018892679893656
0.9524174752211122
0.9001267306465596
0.950853276740284
0.9931140053396997
0.9978715329565311
0.9945464609089918
0.9763423960837613
0.9254223679162765
0.8408709932360842
0.7634300687571076
0.7277019748339837
0.7370611801103909
0.7892036970202752
0.868483458350193
0.936942414710383
0.9738194285445139
0.9867450007152287
0.9798073890028379
0.8608141355978293
0.613216296726746
0.858312144152458
0.9428423192701757
0.9732722021000519
0.9382328269814285
0.7047336083494625
0.745750022561442
0.9595013505160351
0.9959194094114853
0.9956800913114179
0.7799280605432763
0.9727478692267163
0.6409992208092399
0.7148894869443175
0.9318570516811144
0.9837404875213815
0.9861484807995758
0.9432372957097973
0.8176145260684222
0.6737017766034886
0.6381386807353427
0.664034239718918
0.6737139685638815
0.6526743618385804
0.6380115174895481
0.6992675575007461
0.8215413882748193
0.9083236510632815
0.9309979304767821
0.8504385262239675
0.6331534650998031
0.9077298767571416
0.9813419306521092
0.9933821150591227
0.993265267008609
0.9553224231825681
0.7440684748322051
0.7160370483872657
0.956986238289254
0.9966066361431083
0.9976098205519612
0.8492746470676037
0.9841651436244641
0.5749281902884111
0.6112705825577847
0.6643575619826111
0.8654856722483601
0.9475014794123776
0.8859225565074031
0.6896305434813403
0.6575391859108021
0.779920234113052
0.8613630327276465
0.8901959353476562
0.8831115788602739
0.8384817135432109
0.7462827896915785
0.6485703917219048
0.6606764986327813
0.734433794910298
0.714855833341048
0.6465820910783608
0.9037324760882033
0.990258364694625
0.9981080324343748
0.9990706630140679
0.996208705182425
0.9664559265876952
0.7758433392596007
0.7071641587563712
0.9617505231712081
0.9976083415242911
0.9986522476071118
0.9004677942571078
0.9906219504902346
0.6169888655849601
0.8216825025073199
0.785674217052215
0.637081912570916
0.7429823321553617
0.7796628236970903
0.6345228420648326
0.7827833529935853
0.9152902786687392
0.9622824746150018
0.9769928942952153
0.9794487935103101
0.973254136589308
0.9525921645773279
0.9000384393124757
0.7974513575873599
0.692406872998642
0.6620237372678022
0.731949856407341
0.9175915922202202
0.9907709712647278
0.9991292952116513
0.999803057745294
0.9996829506455417
0.9973099289794521
0.9732803967416107
0.7857934270694267
0.7251201602840026
0.9723591321492285
0.9986174455773822
0.9992300107851882
0.936590493288076
0.9944446438304728
0.6466454848957497
0.916138435579624
0.958801651800514
0.894787406357837
0.711128968011734
0.5891465821332829
0.6390767893742663
0.882998142177142
0.9694675809929553
0.9900844611614581
0.9954086355858296
0.99676312712439
0.9964633674833441
0.994264305438702
0.9875194657767029
0.9688456860895528
0.9286057130982244
0.8831620291822808
0.8911865119001632
0.9548759609725409
0.9922759197575722
0.9992581470721119
0.9999236588254439
0.9999655916559795
0.9998003222926101
0.9979056499235428
0.9751392120427724
0.7647987070260803
0.77624983037366
0.9841001009362598
0.9993474335700021
0.9995597486183295
0.961910672104852
0.9968149857682356
0.7175648492982489
0.9564892167800836
0.9896960000289385
0.9875132450829159
0.9514002557696776
0.7973353929721267
0.5781711083118218
0.9161991099970332
0.9873370843889807
0.9970614473641713
0.9989840538848593
0.9994548363919558
0.9995275991844038
0.999350201630128
0.9987006043936034
0.9967300774663702
0.991477516061929
0.981960172340105
0.9763921213047227
0.9849089437473246
0.9957169988329737
0.9993874315625503
0.9999418805218925
0.9999921588800682
0.9999845723544365
0.9998477422027808
0.9980594235900103
0.97069625142085
0.7094192138442093
0.8537632509262276
0.9927824348657561
0.9997455293539671
0.9997536858217856
0.9788451202133205
0.9982785556133079
0.8024861620329665
0.9765284930084919
0.9959702012694525
0.9983066823481339
0.9952670566998902
0.9725350559807734
0.7474541671218095
0.817191475548089
0.9885744274527551
0.9988236587472891
0.9997306393271094
0.9998943489772828
0.9999307878045632
0.9999235456215397
0.999866982969263
0.999684137982567
0.9991539076855469
0.9979580535580983
0.9965264407076543
0.9966895574842053
0.9984602601786239
0.9996432509265663
0.9999518862009228
0.9999941712207833
0.9999974359468419
0.9999882900329448
0.9998584256788272
0.9976428177367928
0.9547674694104638
0.6454454622363959
0.9275944455960082
0.9974279435234249
0.9999148965859828
0.9998682125817466
0.9892026916309893
0.9991335272227555
0.8674232159585495
0.9861894493137647
0.9980426960569448
0.99959664337272
0.9995395769131373
0.9973482592855533
0.9567203743148238
0.6352302205644746
0.9454157311729008
0.9979751599024796
0.9998721684484371
0.9999741848095456
0.9999882424440403
0.999990176110185
0.9999858871335395
0.9999696941766423
0.999920254272022
0.9997938463387762
0.9995814527094256
0.9994579395919992
0.9996155637239444
0.9998554912640419
0.9999645798979938
0.9999875941684084
0.9999912981658732
0.9999927578932434
0.9999851345508917
0.9998198788567297
0.9960135385527872
0.9106502835585971
0.6676640537311135
0.9736439561860313
0.9992761652774107
0.9999735063048296
0.9999335989730048
0.9949780658387435
0.9995980578764475
0.8898105594854621
0.9871476173783593
0.9988561304649883
0.9998401053283218
0.9999387142123075
0.9997580362789225
0.9953363401758475
0.8794193456471291
0.7205046996091156
0.983245998238848
0.9994699418775452
0.9999783687541076
0.999997152178217
0.9999985426655057
0.9999983930041294
0.9999970221253561
0.999992565186705
0.9999801897674048
0.9999546639809264
0.9999260775445562
0.9999240858188744
0.9999460317043023
0.9999519473064922
0.9999401663855442
0.999936694031354
0.9999471902709525
0.9999602338438528
0.9999570167307492
0.9996483729774736
0.9903915542226212
0.7987149024674705
0.8178955920779172
0.9928973620299746
0.9998335493711527
0.999991368053432
0.9999689004343472
0.9979162136415389
0.9998312081551193
0.8044008784676205
0.965921034703507
0.9987094216018022
0.9999071407039313
0.9999847935076082
0.999976773618086
0.9995598188889342
0.9851758105431564
0.7355326837157992
0.8634760506981017
0.9942708992975813
0.9998192588712492
0.9999937989173097
0.9999995629647398
0.9999997891185889
0.9999996902884691
0.9999992897992134
0.999998097218753
0.9999952228261686
0.9999901337133219
0.9999809995020515
0.9999483613484613
0.9998434826562735
0.9996696939064701
0.9995554372188054
0.9995815184019549
0.999678556612395
0.9997622497194425
0.999777484969703
0.9988671900328951
0.9679218371307693
0.6457799756264756
0.9430833066960222
0.9984931104325394
0.9999659100116269
0.9999968189670859
0.9999866718842033
0.9992285903501774
0.9999356274787666
0.6406875160329887
0.880744004803382
0.9959114247323059
0.999873510321369
0.9999921244742066
0.9999971412283618
0.9999603679516926
0.9986052403461643
0.9560806937757201
0.6384377030073602
0.9416548486384051
0.9978212238303299
0.9999287145548327
0.999997591100247
0.9999998882103555
0.999999954923896
0.999999896475689
0.9999996822730591
0.9999990242652859
0.9999968814996022
0.9999847408703602
0.9998993547622532
0.9994909388405632
0.998441634729857
0.9972287901705613
0.9968972433661106
0.9974238788133599
0.9981018113814767
0.998541988426228
0.9985576586895512
0.9942983690073455
0.8750716252071522
0.741227500942383
0.9879731223721133
0.9997087866541939
0.9999920860707995
0.9999987052491502
0.9999946536774739
0.9996974181437486
0.9999714064823997
0.7211968569522542
0.7234106339236375
0.9839862616328238
0.9995661552989181
0.9999875013637601
0.9999991810254145
0.9999964661782389
0.9998785819744148
0.9957400180550233
0.8921779106145631
0.6881888557823599
0.9751503067174998
0.9990996019970998
0.9999694054945365
0.9999989475832219
0.9999999380659584
0.9999998894083595
0.9999995410839696
0.9999982502696281
0.9999939583731637
0.9999750325318394
0.9998256375079093
0.9987550758552215
0.9943319307251411
0.9858090506176455
0.979906591387682
0.9810331536316995
0.9854090844875114
0.9891249449590689
0.990941071219114
0.9898463727359883
0.9632423636074481
0.6564529867639489
0.9250872738890098
0.9976347457270847
0.9999250782084464
0.9999970099148315
0.9999993965350591
0.9999961866745153
0.9996636677888546
0.9999381636119297
0.8364454936075824
0.6084429269637484
0.9478821891014784
0.998255304872616
0.9999534346438221
0.9999986768967927
0.9999996427209871
0.9999897506127315
0.9996367146772811
0.9884145596639223
0.7865619928152715
0.8030592752554556
0.9890824818432181
0.9996044125621689
0.9999863130066545
0.9999994747473447
0.9999997061282548
0.9999987227938377
0.9999946350112927
0.9999802279241408
0.9999347206321716
0.9997144507135611
0.9977984860534983
0.9852999947621737
0.9466747768207914
0.9021742138361126
0.890902049346696
0.9069332268122847
0.9281191689266831
0.9425656760964953
0.946476195173148
0.9316373048957872
0.7910281465538462
0.717418249127999
0.9817081897159604
0.9992273947555764
0.9999646151465936
0.9999983318158007
0.9999989579945107
0.9999763709904789
0.9984798159173692
0.9994337272157152
0.7424159537695934
0.5494041504337299
0.8455920695034852
0.9927552402210605
0.9997809361138239
0.9999940660887304
0.9999998117856644
0.9999991440501885
0.9999702330236746
0.9990122231661326
0.9718422679411332
0.6774427448691598
0.8929589296692962
0.9950276456143875
0.9998214516748488
0.9999937265111969
0.9999990728444678
0.9999965064278962
0.9999842545171923
0.9999359225045024
0.9997769268188939
0.999307356044322
0.9967282035616779
0.9738267469431325
0.8679458838110722
0.7250653185034285
0.675156235752354
0.6811492660698586
0.7129844742915704
0.7510604128493807
0.7748236474723895
0.7681191069686358
0.7046705069568602
0.5445950338364722
0.8721579328541873
0.9914572244237243
0.9995463057039146
0.9999784913422156
0.9999987580441727
0.9999897310683271
0.9997114303121539
0.9879650820277799
0.9932841807898936
0.6644977633870306
0.7956646958814987
0.6162831949436364
0.9594535799526098
0.9986188324326926
0.9999611716342001
0.9999989762220693
0.9999999036898375
0.999997601552961
0.999920578418355
0.9975445899605234
0.9390013467044653
0.637201978407015
0.9450885200918626
0.9977169838797767
0.9999197579750294
0.9999954978369368
0.9999907875508032
0.9999564068467259
0.9998078713865537
0.9992522958548234
0.997594651237626
0.9930813831616025
0.964700684437308
0.7877128789621206
0.6382231447815662
0.7060739933956773
0.7268842506154596
0.7017692533198268
0.6690130084447443
0.649606086686876
0.6451912993899827
0.6565500365369337
0.6769933627456614
0.6049686178734495
0.9122628915598868
0.9941220494159978
0.9997100223019296
0.999987668029586
0.9999957927300475
0.999873952917083
0.9963743199392849
0.8930882133740949
0.926964175702324
0.9209379319160811
0.9697083161941358
0.8019548774499
0.7688582641301971
0.9879204480004992
0.9996526615961031
0.9999910132860386
0.9999997709745271
0.9999998032597545
0.9999937396301998
0.999804355189208
0.994357922644105
0.8812815269806438
0.6883761008005859
0.9731344539848082
0.9989750195971855
0.9999607090593864
0.9999759361987453
0.9998849265254829
0.9994626446232941
0.997720746004623
0.9917682541610529
0.9767244661652665
0.9404174204915791
0.7483587622080597
0.6937927864950781
0.8804288920022414
0.9239660816620551
0.9204169791245771
0.899409512043461
0.8732847176508176
0.8555495002328909
0.8597985920899911
0.8872400546862245
0.8461099843022538
0.6377875323718462
0.9326978834737417
0.9961603455736119
0.9998371372682205
0.999992761192141
0.9999567785269222
0.9984849491094554
0.9590651737937805
0.6310716076102637
0.6537151142861768
0.9913578101351872
0.9968999314871368
0.9730599143137189
0.6874205248880071
0.8984360092315669
0.9964074113174342
0.9999071843902747
0.9999977482599857
0.9999999313439616
0.999999509525619
0.999984797679174
0.9995483096229372
0.9877064440538574
0.7925961331611436
0.7887652940347908
0.9875818172556707
0.9995454077008566
0.9999292323168756
0.9997098328539604
0.9985765177074133
0.9936442746644537
0.9752665428161864
0.9251093145595388
0.8401720829509965
0.6914060270674902
0.6950571471441802
0.9453589780978126
0.9832462357136867
0.9868534482516337
0.9839904103467715
0.9784763207165553
0.9728585085824604
0.9708229948535025
0.9748520757104533
0.9752328200856676
0.870435385411735
0.6576465069569756
0.9545259266804474
0.9978806093617371
0.9999209901872448
0.9999854410527058
0.9995261640786575
0.9833414496954922
0.733037872224029
0.8838556773243682
0.8420308746323603
0.9992277815466012
0.9997154399521276
0.9973828704933185
0.9373187268738812
0.6438910966299161
0.9649515559766063
0.9990059079027138
0.9999760488056105
0.9999994399309635
0.9999999482543546
0.9999988269407384
0.9999650671040236
0.9989951623387594
0.9739051520849781
0.6908819582580894
0.881686618628334
0.9945496660542438
0.99966977854084
0.9992977066624437
0.9964251326249841
0.983514243234676
0.9356643805519295
0.8142802764203032
0.6739770833833549
0.6156975696123181
0.566390700812182
0.9271512412565598
0.9933654683993388
0.9978043103100812
0.9978423467349935
0.9971367708678038
0.9961792267657841
0.9954821514493495
0.9956209460716097
0.9961176063041577
0.9864441854273904
0.8420181537923802
0.7067114053560315
0.9746736346230359
0.9990124380833733
0.9999600977153913
0.9998845496058884
0.9951990193644061
0.8661685943956798
0.7331188368599356
0.9868049085429721
0.9818264334568466
0.9999347388836689
0.9999749741457093
0.9997628415819916
0.9933154035765941
0.8370161090669777
0.7772054775903144
0.9898426505788874
0.9997453568768062
0.9999940990550249
0.9999998531695288
0.9999999029353126
0.9999972991474386
0.9999216498557972
0.9977749055252108
0.9454825263757695
0.6367797603597198
0.9425878694228199
0.9972412275780534
0.9982774374249073
0.9915567130485669
0.9604149074130306
0.8564280619606696
0.6789939705427805
0.6583377202650696
0.770518727256404
0.7283650442443491
0.7188396230006912
0.9770375234806098
0.9986794583908263
0.9996706332171702
0.9996416326875048
0.999514525517799
0.9993840540926547
0.9993353486312234
0.9993874618955605
0.9987414642431994
0.9832524932023977
0.7770302294068289
0.7966379066605757
0.9883782856918576
0.9995477625247228
0.9999540674250804
0.9989801794992609
0.9597230275696107
0.6377133783560704
0.9523320231220882
0.9982647006472489
0.9982657382512418
0.9999944053256021
0.999997832855568
0.999978815580574
0.999372475901077
0.9776390641231152
0.677633871598879
0.9149247151864394
0.9973815799890231
0.9999383231533935
0.9999984815231828
0.9999999314681541
0.9999997608881817
0.9999935869977662
0.9998188538210772
0.9948977597672627
0.8867045607531243
0.6887908435501647
0.9723010490210685
0.9946015484923102
0.9811972535778486
0.9143818015917782
0.738713788119081
0.6416724375658318
0.7911289430092874
0.9145500471714847
0.9420394296174163
0.72996185706836
0.8221989556511806
0.989122523838449
0.9995126936663341
0.9999382966095984
0.999940051774079
0.9999212379440051
0.9999073236326342
0.9999071774845499
0.9998668325689208
0.998632734785169
0.9711441590168534
0.6810747200512371
0.8921747743441458
0.9947963986136628
0.999697103347254
0.9998090182683687
0.992170514946259
0.7944701422545607
0.8348090931080835
0.9936648563424676
0.9996226923462048
0.9997904338197768
0.9999994169890312
0.9999998063569919
0.9999980988901932
0.9999421391838984
0.9977043244043743
0.9249572830774586
0.6648967686622285
0.9754938228207186
0.9993701018057269
0.9999840822153151
0.9999993034781945
0.9999998876877391
0.9999991021043055
0.9999800585249294
0.9994975196161543
0.9866431039870467
0.7699158913945009
0.7968874752689986
0.9701488701347522
0.9590948989493054
0.8370180852557803
0.6469185755345251
0.7321160089778966
0.9020090504558657
0.970479048719969
0.9883576341410862
0.9592174796722179
0.665956855991165
0.8914194061300722
0.994361793027428
0.9997716797905961
0.9999845084000001
0.9999899833613959
0.9999877769627458
0.9999866307277834
0.9999829706705201
0.9998742028563186
0.997227578860321
0.9354533382248978
0.631747996777008
0.9479823367884102
0.9963770614181905
0.9997056158786285
0.9988457510684121
0.9542363670721279
0.6385500651776993
0.9615129841120675
0.9988173834936422
0.9998802890201997
0.9999511901117556
0.9999998759550998
0.9999999773425708
0.999999820755051
0.9999945159978789
0.9997758206500958
0.9909601477166478
0.7877433165950296
0.8347305886017097
0.9938725632995142
0.9998350095367786
0.9999918476411416
0.9999990874422136
0.9999994373647246
0.9999927626268799
0.9998761818045385
0.9976245425829411
0.9516096859009815
0.604614538755286
0.8091781864423198
0.893946694105239
0.7368460636724911
0.654274483317064
0.8479391856172077
0.9580245390972137
0.9895102432706618
0.9970095552200243
0.9959084197421264
0.9354997710443925
0.6368127328642555
0.9371864140128502
0.9971074291698486
0.999889036196016
0.9999947924837547
0.9999982999646375
0.999998130795065
0.9999970829136148
0.9999753308115192
0.9995169894753224
0.989556862478066
0.8177305903986453
0.7007019145030482
0.9603066022586391
0.9965181638982203
0.9996552854400199
0.9939000439139447
0.8337169182919661
0.7826083823803256
0.9887438618808475
0.9995643140576445
0.9999545070701256
0.9999752473420922
0.9999999049551812
0.999999989572797
0.9999999772366396
0.999999373176192
0.9999765811435126
0.9990409471012465
0.9642847697727446
0.6395787514524505
0.9481464847934571
0.9983265877544273
0.9999038003976579
0.9999883743410013
0.9999980971249404
0.9999938289857643
0.9999098495865149
0.9986354989077137
0.9795059884345447
0.7727698665224662
0.5582465745604985
0.6740862253936208
0.6362426978150588
0.7365227370038686
0.9233258428083506
0.9825220027178376
0.9961005321909581
0.9990655560935882
0.9995034483295571
0.994171244329568
0.8904078904964061
0.6693209891868543
0.9657715735766075
0.9985599882311238
0.9999464191129315
0.9999978258103127
0.9999996253181321
0.9999990975551285
0.9999874111266546
0.9997593913041019
0.9955468926526434
0.9297785086957067
0.5751736049953742
0.73132336801641
0.9592681266039813
0.9973388896714639
0.9992404112546466
0.976090112042471
0.6792895799521732
0.8968829174524666
0.9945854000033134
0.9997104872298586
0.9999805802815647
0.9999800240059104
0.9999997134788484
0.9999999672659816
0.9999999928909588
0.9999998562400534
0.9999961430273427
0.9998782630670904
0.9955752425514566
0.8731183597155798
0.7347834711300617
0.9839905282831357
0.9988713190217844
0.9998480304799063
0.9999793299654167
0.9999918930416563
0.9999160248127326
0.9987698558785643
0.9829201812943447
0.8249749377203932
0.6382044421830916
0.7049746358418111
0.5419768972060255
0.806675411852547
0.9614157483678212
0.992585807425821
0.9984946104402751
0.9996731074569462
0.9999036136231442
0.9995326774821702
0.98919220872545
0.8200817587000861
0.7505252723893394
0.9823446451733654
0.9992996301585384
0.9999740232452895
0.9999986923786047
0.9999993087580086
0.9999913352603765
0.9998332646226877
0.9968703959097118
0.9504245646775977
0.6603223470181251
0.637350840502678
0.7212316932644417
0.9689074815769807
0.9985992693230706
0.9976249293603845
0.9356483070571129
0.6381755256499466
0.9385160367462728
0.9960754102587016
0.999737806686114
0.9999906154507048
0.9999801369510847
0.9999986051634403
0.9999998289729151
0.9999999913969649
0.9999999307440932
0.9999984563321013
0.9999655908013627
0.9991773935628117
0.9776114709140881
0.6799592120360585
0.8767667437563916
0.9873328488472737
0.998046173500992
0.9997261284751978
0.9999615851226467
0.9999167459045678
0.9988347504274108
0.9838526367110808
0.8359090472165616
0.6656838191497704
0.9032406888419414
0.7425466586731365
0.7524478634853752
0.9746875514771888
0.9965726246873812
0.9993904247374735
0.9998778709375691
0.9999719686577128
0.9999600316599904
0.9991419403015055
0.9793183389621023
0.7297554735862362
0.8404894485258677
0.9912124358183902
0.9996620100015285
0.9999848546811612
0.9999974396582597
0.9999929428434545
0.999880497546245
0.997724691896388
0.9615417387178891
0.6913772084201867
0.7899438012018357
0.7504841362577019
0.7671122272858585
0.9850075656925702
0.9993413866863475
0.9938097716221745
0.8794221314715274
0.6674615961983233
0.9521219267919134
0.9963814206890279
0.9997270843406755
0.9999946355229072
0.9999785300828931
0.9999931047882428
0.9999989424235052
0.9999999554815896
0.9999999524134371
0.9999991050461858
0.9999804179373343
0.9996051455077508
0.9926214446656718
0.8792380096060636
0.5867267146793843
0.8853996542093824
0.9767536421520951
0.9963933483615067